# Probe 0 (0 0 90)
# Probe 1 (315 0 90)
# Probe 2 (630 0 90)
# Probe 3 (945 0 90)
# Time            0                 1                 2                 3                
50                0.6442376046      1.632483568       1.642767887       1.215061792      
100               0.6473692666      1.67167941        1.761658253       1.595508612      
150               0.6450023928      1.681290264       1.778615207       1.688274237      
200               0.6476902111      1.683090189       1.781611262       1.70620164       
250               0.6449448972      1.683505117       1.781770621       1.709651862      
300               0.6454391615      1.683072917       1.781905956       1.71155244       
350               0.6474781238      1.682001458       1.782608188       1.711503367      
400               0.6473959771      1.683511025       1.782673999       1.71181749       
450               0.6469383488      1.68247288        1.781887727       1.711313003      
500               0.6452458649      1.683901089       1.782438434       1.712070294      
