# Probe 0 (0 0 90)
# Probe 1 (315 0 90)
# Probe 2 (630 0 90)
# Probe 3 (945 0 90)
# Time            0                 1                 2                 3                
50                (7.357765081 0.05471266355 0.149705495) (5.612815006 -0.01001248502 0.03243666794) (6.937339876 0.03595283697 -0.08228539083) (7.905254635 0.0003799214529 -0.02820433365)
100               (7.336697726 0.07382490679 0.1659457609) (5.487915227 -0.007659685883 -0.007078950253) (5.966705612 0.006496019427 0.007371961783) (6.696622703 0.01181436377 0.0101225346)
150               (7.331129237 0.05189996557 0.1538024681) (5.475780895 -0.008786207103 -0.005290376722) (5.911327925 0.007638999381 -0.01157769689) (6.44044322 0.004433442074 -0.004742956887)
200               (7.332949291 0.07076025246 0.165870896) (5.471467504 -0.009016643107 -0.002724415808) (5.901744781 0.007694095813 -0.01032046107) (6.416438387 0.00523687664 -0.01785417979)
250               (7.330163752 0.05800819607 0.1520228775) (5.470055784 -0.008409034313 -0.002886791237) (5.899182387 0.008183634872 -0.009192810235) (6.408152553 0.005501138241 -0.01725164566)
300               (7.33015962 0.05133935383 0.1542678511) (5.469479252 -0.00853867465 -0.002135136404) (5.897435794 0.007780052684 -0.009020942296) (6.405338454 0.005376581274 -0.01681040658)
350               (7.332737231 0.06643821675 0.1685633763) (5.470078095 -0.009037457137 -0.002368658158) (5.897342487 0.007792391889 -0.008962860751) (6.404594056 0.005267217207 -0.01636001009)
400               (7.332777446 0.07035103589 0.1659067861) (5.469471367 -0.00878535144 -0.001872755963) (5.896955281 0.007953341355 -0.009293518181) (6.404482946 0.005308885119 -0.01664071448)
450               (7.332953248 0.07672095489 0.1712468991) (5.470844324 -0.008994890013 -0.003048602576) (5.897597024 0.007895958079 -0.008940465262) (6.403976729 0.005630587952 -0.01638612799)
500               (7.330393784 0.06237519816 0.1576385205) (5.468743453 -0.008586521262 -0.002761877919) (5.897599225 0.008046435871 -0.008897140394) (6.404693573 0.00533047624 -0.01693101352)
