# Probe 0 (0 0 90)
# Probe 1 (315 0 90)
# Probe 2 (630 0 90)
# Probe 3 (945 0 90)
# Time            0                 1                 2                 3                
50                0.649510166       1.930327156       1.966259022       2.989721239      
100               0.6498725416      1.935337141       2.108569134       3.566599613      
150               0.6499456259      1.938256175       2.123949537       3.58455781       
200               0.6499720654      1.939154534       2.124702343       3.574944706      
250               0.6499842854      1.939459965       2.125066923       3.56903808       
300               0.6499904565      1.93959159        2.125219341       3.566646963      
350               0.6499936628      1.939654479       2.125278432       3.565710067      
400               0.6499953473      1.939685753       2.12530181        3.565332544      
450               0.6499962323      1.939701565       2.12531112        3.565152483      
500               0.6499966952      1.939709613       2.125314777       3.565061172      
