# Probe 0 (0 0 90)
# Probe 1 (315 0 90)
# Probe 2 (630 0 90)
# Probe 3 (945 0 90)
# Time            0                 1                 2                 3                
50                (7.288493016 0.0775270496 0.1577679362) (5.410810903 -0.01055111807 0.03404358056) (5.863334793 0.1456817761 0.09218549809) (5.391905443 0.009388575815 -0.02239780016)
100               (7.281414782 0.07730471989 0.1608235125) (5.361954558 -0.009102799557 0.005875663801) (5.289418475 0.119542784 0.1323414678) (4.868338947 0.02189963454 -0.02910376217)
150               (7.279584437 0.07726773935 0.1614964379) (5.356520447 -0.00955337956 0.01279351028) (5.256896325 0.1188766315 0.1216115522) (4.732982943 0.0177096982 -0.02995631947)
200               (7.278810046 0.0772543377 0.161721142) (5.35286012 -0.009683384098 0.01446382036) (5.246360706 0.1183597147 0.1258265895) (4.686864627 0.0170957751 -0.0300289804)
250               (7.27842748 0.07724825567 0.1618215975) (5.351153947 -0.009722335571 0.01493515383) (5.240813006 0.1180836567 0.1280488504) (4.667607282 0.01666319816 -0.01907439948)
300               (7.27822825 0.07724529429 0.1618725323) (5.350327095 -0.009737894804 0.01512549778) (5.238098967 0.1179701791 0.1288492287) (4.657078664 0.01633958037 -0.01330737587)
350               (7.278122859 0.07724383043 0.1618996632) (5.349911493 -0.00974493785 0.01521567029) (5.236810012 0.1179219697 0.1291578818) (4.652272432 0.01619978951 -0.0108997499)
400               (7.278066865 0.0772431042 0.1619143905) (5.349698812 -0.009748308446 0.01526106293) (5.236186431 0.1179001603 0.1292929047) (4.650052381 0.01614294763 -0.009928335148)
450               (7.278037257 0.07724274384 0.1619223962) (5.349589464 -0.009749947029 0.01528447335) (5.235879056 0.1178898657 0.1293565483) (4.649012351 0.01611964114 -0.009535814736)
500               (7.278021708 0.0772425659 0.1619267255) (5.349533264 -0.009750751904 0.01529665676) (5.235725942 0.1178848881 0.129387736) (4.648519234 0.01610957253 -0.009366350159)
