# Calibrated actuator disk source
# Turbine ID:                : backTurbine
# Thrust method:             : interpolatedFromTable
# Monitor reading method:    : actuatorDisk
# Rotation applied:          : 0.0000000000e+00
# Load distribution:         : NRELdistribution
#                 
# Time            # Uref            # Ctref           # Cpref           # Thr_Calc        # Thr_Applied     # errorT (%)      #                 
1                 1.448e+01		7.700e-01	4.900e-01	1.008e+06		9.947e+05	-1.309e+00	
2                 6.682e+00		8.027e-01	5.573e-01	2.238e+05		2.209e+05	-1.309e+00	
3                 8.294e+00		7.700e-01	4.900e-01	3.308e+05		3.265e+05	-1.309e+00	
4                 8.195e+00		7.422e-01	6.178e-01	3.113e+05		3.073e+05	-1.309e+00	
5                 8.056e+00		7.700e-01	4.900e-01	3.121e+05		3.080e+05	-1.309e+00	
6                 8.189e+00		7.700e-01	4.900e-01	3.224e+05		3.182e+05	-1.309e+00	
7                 8.130e+00		7.700e-01	4.900e-01	3.178e+05		3.137e+05	-1.309e+00	
8                 8.072e+00		7.700e-01	4.900e-01	3.133e+05		3.092e+05	-1.309e+00	
9                 8.027e+00		7.700e-01	4.900e-01	3.098e+05		3.058e+05	-1.309e+00	
10                8.011e+00		7.700e-01	4.900e-01	3.086e+05		3.046e+05	-1.309e+00	
11                8.273e+00		7.391e-01	6.209e-01	3.158e+05		3.118e+05	-1.309e+00	
12                8.203e+00		7.419e-01	6.181e-01	3.117e+05		3.077e+05	-1.309e+00	
13                8.205e+00		7.418e-01	6.182e-01	3.119e+05		3.078e+05	-1.309e+00	
14                8.203e+00		7.419e-01	6.181e-01	3.118e+05		3.077e+05	-1.309e+00	
15                8.207e+00		7.417e-01	6.183e-01	3.119e+05		3.079e+05	-1.309e+00	
16                8.211e+00		7.416e-01	6.184e-01	3.122e+05		3.081e+05	-1.309e+00	
17                8.214e+00		7.414e-01	6.186e-01	3.124e+05		3.084e+05	-1.309e+00	
18                8.218e+00		7.413e-01	6.187e-01	3.126e+05		3.086e+05	-1.309e+00	
19                8.221e+00		7.412e-01	6.188e-01	3.128e+05		3.087e+05	-1.309e+00	
20                8.222e+00		7.411e-01	6.189e-01	3.129e+05		3.088e+05	-1.309e+00	
21                8.223e+00		7.411e-01	6.189e-01	3.129e+05		3.089e+05	-1.309e+00	
22                8.221e+00		7.411e-01	6.189e-01	3.128e+05		3.088e+05	-1.309e+00	
23                8.218e+00		7.413e-01	6.187e-01	3.126e+05		3.086e+05	-1.309e+00	
24                8.212e+00		7.415e-01	6.185e-01	3.123e+05		3.082e+05	-1.309e+00	
25                8.204e+00		7.418e-01	6.182e-01	3.118e+05		3.078e+05	-1.309e+00	
26                8.194e+00		7.422e-01	6.178e-01	3.112e+05		3.072e+05	-1.309e+00	
27                8.182e+00		7.427e-01	6.173e-01	3.105e+05		3.065e+05	-1.309e+00	
28                8.167e+00		7.433e-01	6.167e-01	3.096e+05		3.056e+05	-1.309e+00	
29                8.150e+00		7.440e-01	6.160e-01	3.086e+05		3.046e+05	-1.309e+00	
30                8.130e+00		7.448e-01	6.152e-01	3.074e+05		3.035e+05	-1.309e+00	
31                8.108e+00		7.457e-01	6.143e-01	3.061e+05		3.022e+05	-1.309e+00	
32                8.084e+00		7.466e-01	6.134e-01	3.047e+05		3.008e+05	-1.309e+00	
33                8.057e+00		7.477e-01	6.123e-01	3.031e+05		2.992e+05	-1.309e+00	
34                8.028e+00		7.489e-01	6.111e-01	3.014e+05		2.975e+05	-1.309e+00	
35                7.997e+00		7.501e-01	6.099e-01	2.995e+05		2.957e+05	-1.309e+00	
36                7.963e+00		7.515e-01	6.085e-01	2.976e+05		2.937e+05	-1.309e+00	
37                7.927e+00		7.529e-01	6.071e-01	2.954e+05		2.916e+05	-1.309e+00	
38                7.890e+00		7.544e-01	6.056e-01	2.933e+05		2.895e+05	-1.309e+00	
39                7.851e+00		7.560e-01	6.040e-01	2.910e+05		2.872e+05	-1.309e+00	
40                7.811e+00		7.576e-01	6.024e-01	2.886e+05		2.849e+05	-1.309e+00	
41                7.769e+00		7.592e-01	6.008e-01	2.861e+05		2.825e+05	-1.309e+00	
42                7.726e+00		7.610e-01	5.990e-01	2.836e+05		2.800e+05	-1.309e+00	
43                7.682e+00		7.627e-01	5.973e-01	2.811e+05		2.775e+05	-1.309e+00	
44                7.638e+00		7.645e-01	5.955e-01	2.785e+05		2.749e+05	-1.309e+00	
45                7.593e+00		7.663e-01	5.937e-01	2.759e+05		2.723e+05	-1.309e+00	
46                7.548e+00		7.681e-01	5.919e-01	2.733e+05		2.697e+05	-1.309e+00	
47                7.504e+00		7.699e-01	5.901e-01	2.707e+05		2.672e+05	-1.309e+00	
48                7.459e+00		7.716e-01	5.884e-01	2.681e+05		2.646e+05	-1.309e+00	
49                7.416e+00		7.734e-01	5.866e-01	2.656e+05		2.621e+05	-1.309e+00	
50                7.373e+00		7.751e-01	5.849e-01	2.631e+05		2.597e+05	-1.309e+00	
51                7.332e+00		7.767e-01	5.833e-01	2.608e+05		2.574e+05	-1.309e+00	
52                7.293e+00		7.783e-01	5.817e-01	2.585e+05		2.551e+05	-1.309e+00	
53                7.255e+00		7.798e-01	5.802e-01	2.563e+05		2.530e+05	-1.309e+00	
54                7.219e+00		7.812e-01	5.788e-01	2.543e+05		2.510e+05	-1.309e+00	
55                7.186e+00		7.826e-01	5.774e-01	2.523e+05		2.491e+05	-1.309e+00	
56                7.154e+00		7.838e-01	5.762e-01	2.505e+05		2.473e+05	-1.309e+00	
57                7.124e+00		7.850e-01	5.750e-01	2.488e+05		2.456e+05	-1.309e+00	
58                7.097e+00		7.861e-01	5.739e-01	2.472e+05		2.440e+05	-1.309e+00	
59                7.071e+00		7.872e-01	5.728e-01	2.458e+05		2.426e+05	-1.309e+00	
60                7.047e+00		7.881e-01	5.719e-01	2.444e+05		2.412e+05	-1.309e+00	
61                7.025e+00		7.890e-01	5.710e-01	2.431e+05		2.400e+05	-1.309e+00	
62                7.004e+00		7.898e-01	5.702e-01	2.420e+05		2.388e+05	-1.309e+00	
63                6.985e+00		7.906e-01	5.694e-01	2.409e+05		2.378e+05	-1.309e+00	
64                6.967e+00		7.913e-01	5.687e-01	2.399e+05		2.368e+05	-1.309e+00	
65                6.950e+00		7.920e-01	5.680e-01	2.389e+05		2.358e+05	-1.309e+00	
66                6.935e+00		7.926e-01	5.674e-01	2.380e+05		2.350e+05	-1.309e+00	
67                6.920e+00		7.932e-01	5.668e-01	2.372e+05		2.341e+05	-1.309e+00	
68                6.907e+00		7.937e-01	5.663e-01	2.364e+05		2.334e+05	-1.309e+00	
69                6.894e+00		7.943e-01	5.657e-01	2.357e+05		2.327e+05	-1.309e+00	
70                6.882e+00		7.947e-01	5.653e-01	2.350e+05		2.320e+05	-1.309e+00	
71                6.870e+00		7.952e-01	5.648e-01	2.344e+05		2.313e+05	-1.309e+00	
72                6.859e+00		7.956e-01	5.644e-01	2.338e+05		2.307e+05	-1.309e+00	
73                6.849e+00		7.960e-01	5.640e-01	2.332e+05		2.302e+05	-1.309e+00	
74                6.839e+00		7.964e-01	5.636e-01	2.326e+05		2.296e+05	-1.309e+00	
75                6.830e+00		7.968e-01	5.632e-01	2.321e+05		2.291e+05	-1.309e+00	
76                6.821e+00		7.972e-01	5.628e-01	2.316e+05		2.286e+05	-1.309e+00	
77                6.813e+00		7.975e-01	5.625e-01	2.311e+05		2.282e+05	-1.309e+00	
78                6.805e+00		7.978e-01	5.622e-01	2.307e+05		2.277e+05	-1.309e+00	
79                6.797e+00		7.981e-01	5.619e-01	2.303e+05		2.273e+05	-1.309e+00	
80                6.790e+00		7.984e-01	5.616e-01	2.299e+05		2.269e+05	-1.309e+00	
81                6.783e+00		7.987e-01	5.613e-01	2.295e+05		2.265e+05	-1.309e+00	
82                6.776e+00		7.989e-01	5.611e-01	2.291e+05		2.261e+05	-1.309e+00	
83                6.770e+00		7.992e-01	5.608e-01	2.287e+05		2.258e+05	-1.309e+00	
84                6.764e+00		7.994e-01	5.606e-01	2.284e+05		2.255e+05	-1.309e+00	
85                6.758e+00		7.997e-01	5.603e-01	2.281e+05		2.251e+05	-1.309e+00	
86                6.753e+00		7.999e-01	5.601e-01	2.278e+05		2.248e+05	-1.309e+00	
87                6.748e+00		8.001e-01	5.599e-01	2.275e+05		2.245e+05	-1.309e+00	
88                6.743e+00		8.003e-01	5.597e-01	2.272e+05		2.243e+05	-1.309e+00	
89                6.738e+00		8.005e-01	5.595e-01	2.269e+05		2.240e+05	-1.309e+00	
90                6.733e+00		8.007e-01	5.593e-01	2.267e+05		2.237e+05	-1.309e+00	
91                6.729e+00		8.008e-01	5.592e-01	2.264e+05		2.235e+05	-1.309e+00	
92                6.725e+00		8.010e-01	5.590e-01	2.262e+05		2.233e+05	-1.309e+00	
93                6.721e+00		8.012e-01	5.588e-01	2.260e+05		2.231e+05	-1.309e+00	
94                6.717e+00		8.013e-01	5.587e-01	2.258e+05		2.228e+05	-1.309e+00	
95                6.713e+00		8.015e-01	5.585e-01	2.256e+05		2.226e+05	-1.309e+00	
96                6.710e+00		8.016e-01	5.584e-01	2.254e+05		2.225e+05	-1.309e+00	
97                6.707e+00		8.017e-01	5.583e-01	2.252e+05		2.223e+05	-1.309e+00	
98                6.703e+00		8.019e-01	5.581e-01	2.250e+05		2.221e+05	-1.309e+00	
99                6.700e+00		8.020e-01	5.580e-01	2.248e+05		2.219e+05	-1.309e+00	
100               6.698e+00		8.021e-01	5.579e-01	2.247e+05		2.218e+05	-1.309e+00	
101               6.695e+00		8.022e-01	5.578e-01	2.245e+05		2.216e+05	-1.309e+00	
102               6.692e+00		8.023e-01	5.577e-01	2.244e+05		2.215e+05	-1.309e+00	
103               6.690e+00		8.024e-01	5.576e-01	2.242e+05		2.213e+05	-1.309e+00	
104               6.687e+00		8.025e-01	5.575e-01	2.241e+05		2.212e+05	-1.309e+00	
105               6.685e+00		8.026e-01	5.574e-01	2.240e+05		2.211e+05	-1.309e+00	
106               6.683e+00		8.027e-01	5.573e-01	2.239e+05		2.210e+05	-1.309e+00	
107               6.681e+00		8.028e-01	5.572e-01	2.237e+05		2.209e+05	-1.309e+00	
108               6.679e+00		8.028e-01	5.572e-01	2.236e+05		2.207e+05	-1.309e+00	
109               6.677e+00		8.029e-01	5.571e-01	2.235e+05		2.206e+05	-1.309e+00	
110               6.675e+00		8.030e-01	5.570e-01	2.234e+05		2.206e+05	-1.309e+00	
111               6.674e+00		8.031e-01	5.569e-01	2.233e+05		2.205e+05	-1.309e+00	
112               6.672e+00		8.031e-01	5.569e-01	2.233e+05		2.204e+05	-1.309e+00	
113               6.671e+00		8.032e-01	5.568e-01	2.232e+05		2.203e+05	-1.309e+00	
114               6.669e+00		8.032e-01	5.568e-01	2.231e+05		2.202e+05	-1.309e+00	
115               6.668e+00		8.033e-01	5.567e-01	2.230e+05		2.201e+05	-1.309e+00	
116               6.666e+00		8.033e-01	5.567e-01	2.229e+05		2.201e+05	-1.309e+00	
117               6.665e+00		8.034e-01	5.566e-01	2.229e+05		2.200e+05	-1.309e+00	
118               6.664e+00		8.034e-01	5.566e-01	2.228e+05		2.199e+05	-1.309e+00	
119               6.663e+00		8.035e-01	5.565e-01	2.227e+05		2.199e+05	-1.309e+00	
120               6.662e+00		8.035e-01	5.565e-01	2.227e+05		2.198e+05	-1.309e+00	
121               6.661e+00		8.036e-01	5.564e-01	2.226e+05		2.197e+05	-1.309e+00	
122               6.660e+00		8.036e-01	5.564e-01	2.226e+05		2.197e+05	-1.309e+00	
123               6.659e+00		8.036e-01	5.564e-01	2.225e+05		2.196e+05	-1.309e+00	
124               6.658e+00		8.037e-01	5.563e-01	2.225e+05		2.196e+05	-1.309e+00	
125               6.657e+00		8.037e-01	5.563e-01	2.224e+05		2.195e+05	-1.309e+00	
126               6.656e+00		8.038e-01	5.562e-01	2.224e+05		2.195e+05	-1.309e+00	
127               6.655e+00		8.038e-01	5.562e-01	2.223e+05		2.194e+05	-1.309e+00	
128               6.654e+00		8.038e-01	5.562e-01	2.223e+05		2.194e+05	-1.309e+00	
129               6.654e+00		8.039e-01	5.561e-01	2.222e+05		2.194e+05	-1.309e+00	
130               6.653e+00		8.039e-01	5.561e-01	2.222e+05		2.193e+05	-1.309e+00	
131               6.652e+00		8.039e-01	5.561e-01	2.221e+05		2.193e+05	-1.309e+00	
132               6.651e+00		8.039e-01	5.561e-01	2.221e+05		2.192e+05	-1.309e+00	
133               6.651e+00		8.040e-01	5.560e-01	2.221e+05		2.192e+05	-1.309e+00	
134               6.650e+00		8.040e-01	5.560e-01	2.220e+05		2.192e+05	-1.309e+00	
135               6.649e+00		8.040e-01	5.560e-01	2.220e+05		2.191e+05	-1.309e+00	
136               6.649e+00		8.040e-01	5.560e-01	2.220e+05		2.191e+05	-1.309e+00	
137               6.648e+00		8.041e-01	5.559e-01	2.219e+05		2.191e+05	-1.309e+00	
138               6.648e+00		8.041e-01	5.559e-01	2.219e+05		2.190e+05	-1.309e+00	
139               6.647e+00		8.041e-01	5.559e-01	2.219e+05		2.190e+05	-1.309e+00	
140               6.646e+00		8.041e-01	5.559e-01	2.218e+05		2.190e+05	-1.309e+00	
141               6.646e+00		8.042e-01	5.558e-01	2.218e+05		2.189e+05	-1.309e+00	
142               6.645e+00		8.042e-01	5.558e-01	2.218e+05		2.189e+05	-1.309e+00	
143               6.645e+00		8.042e-01	5.558e-01	2.217e+05		2.189e+05	-1.309e+00	
144               6.644e+00		8.042e-01	5.558e-01	2.217e+05		2.188e+05	-1.309e+00	
145               6.644e+00		8.043e-01	5.557e-01	2.217e+05		2.188e+05	-1.309e+00	
146               6.643e+00		8.043e-01	5.557e-01	2.216e+05		2.188e+05	-1.309e+00	
147               6.642e+00		8.043e-01	5.557e-01	2.216e+05		2.187e+05	-1.309e+00	
148               6.642e+00		8.043e-01	5.557e-01	2.216e+05		2.187e+05	-1.309e+00	
149               6.641e+00		8.043e-01	5.557e-01	2.215e+05		2.187e+05	-1.309e+00	
150               6.641e+00		8.044e-01	5.556e-01	2.215e+05		2.187e+05	-1.309e+00	
151               6.640e+00		8.044e-01	5.556e-01	2.215e+05		2.186e+05	-1.309e+00	
152               6.640e+00		8.044e-01	5.556e-01	2.215e+05		2.186e+05	-1.309e+00	
153               6.639e+00		8.044e-01	5.556e-01	2.214e+05		2.186e+05	-1.309e+00	
154               6.639e+00		8.044e-01	5.556e-01	2.214e+05		2.185e+05	-1.309e+00	
155               6.638e+00		8.045e-01	5.555e-01	2.214e+05		2.185e+05	-1.309e+00	
156               6.638e+00		8.045e-01	5.555e-01	2.214e+05		2.185e+05	-1.309e+00	
157               6.638e+00		8.045e-01	5.555e-01	2.213e+05		2.185e+05	-1.309e+00	
158               6.637e+00		8.045e-01	5.555e-01	2.213e+05		2.184e+05	-1.309e+00	
159               6.637e+00		8.045e-01	5.555e-01	2.213e+05		2.184e+05	-1.309e+00	
160               6.636e+00		8.046e-01	5.554e-01	2.213e+05		2.184e+05	-1.309e+00	
161               6.636e+00		8.046e-01	5.554e-01	2.212e+05		2.184e+05	-1.309e+00	
162               6.635e+00		8.046e-01	5.554e-01	2.212e+05		2.183e+05	-1.309e+00	
163               6.635e+00		8.046e-01	5.554e-01	2.212e+05		2.183e+05	-1.309e+00	
164               6.634e+00		8.046e-01	5.554e-01	2.212e+05		2.183e+05	-1.309e+00	
165               6.634e+00		8.046e-01	5.554e-01	2.211e+05		2.183e+05	-1.309e+00	
166               6.634e+00		8.047e-01	5.553e-01	2.211e+05		2.183e+05	-1.309e+00	
167               6.633e+00		8.047e-01	5.553e-01	2.211e+05		2.182e+05	-1.309e+00	
168               6.633e+00		8.047e-01	5.553e-01	2.211e+05		2.182e+05	-1.309e+00	
169               6.632e+00		8.047e-01	5.553e-01	2.210e+05		2.182e+05	-1.309e+00	
170               6.632e+00		8.047e-01	5.553e-01	2.210e+05		2.182e+05	-1.309e+00	
171               6.632e+00		8.047e-01	5.553e-01	2.210e+05		2.181e+05	-1.309e+00	
172               6.631e+00		8.047e-01	5.553e-01	2.210e+05		2.181e+05	-1.309e+00	
173               6.631e+00		8.048e-01	5.552e-01	2.210e+05		2.181e+05	-1.309e+00	
174               6.631e+00		8.048e-01	5.552e-01	2.209e+05		2.181e+05	-1.309e+00	
175               6.630e+00		8.048e-01	5.552e-01	2.209e+05		2.181e+05	-1.309e+00	
176               6.630e+00		8.048e-01	5.552e-01	2.209e+05		2.180e+05	-1.309e+00	
177               6.630e+00		8.048e-01	5.552e-01	2.209e+05		2.180e+05	-1.309e+00	
178               6.629e+00		8.048e-01	5.552e-01	2.209e+05		2.180e+05	-1.309e+00	
179               6.629e+00		8.048e-01	5.552e-01	2.208e+05		2.180e+05	-1.309e+00	
180               6.629e+00		8.049e-01	5.551e-01	2.208e+05		2.180e+05	-1.309e+00	
181               6.628e+00		8.049e-01	5.551e-01	2.208e+05		2.180e+05	-1.309e+00	
182               6.628e+00		8.049e-01	5.551e-01	2.208e+05		2.179e+05	-1.309e+00	
183               6.628e+00		8.049e-01	5.551e-01	2.208e+05		2.179e+05	-1.309e+00	
184               6.627e+00		8.049e-01	5.551e-01	2.208e+05		2.179e+05	-1.309e+00	
185               6.627e+00		8.049e-01	5.551e-01	2.207e+05		2.179e+05	-1.309e+00	
186               6.627e+00		8.049e-01	5.551e-01	2.207e+05		2.179e+05	-1.309e+00	
187               6.626e+00		8.049e-01	5.551e-01	2.207e+05		2.179e+05	-1.309e+00	
188               6.626e+00		8.050e-01	5.550e-01	2.207e+05		2.178e+05	-1.309e+00	
189               6.626e+00		8.050e-01	5.550e-01	2.207e+05		2.178e+05	-1.309e+00	
190               6.625e+00		8.050e-01	5.550e-01	2.207e+05		2.178e+05	-1.309e+00	
191               6.625e+00		8.050e-01	5.550e-01	2.206e+05		2.178e+05	-1.309e+00	
192               6.625e+00		8.050e-01	5.550e-01	2.206e+05		2.178e+05	-1.309e+00	
193               6.625e+00		8.050e-01	5.550e-01	2.206e+05		2.178e+05	-1.309e+00	
194               6.624e+00		8.050e-01	5.550e-01	2.206e+05		2.177e+05	-1.309e+00	
195               6.624e+00		8.050e-01	5.550e-01	2.206e+05		2.177e+05	-1.309e+00	
196               6.624e+00		8.050e-01	5.550e-01	2.206e+05		2.177e+05	-1.309e+00	
197               6.624e+00		8.051e-01	5.549e-01	2.206e+05		2.177e+05	-1.309e+00	
198               6.623e+00		8.051e-01	5.549e-01	2.205e+05		2.177e+05	-1.309e+00	
199               6.623e+00		8.051e-01	5.549e-01	2.205e+05		2.177e+05	-1.309e+00	
200               6.623e+00		8.051e-01	5.549e-01	2.205e+05		2.177e+05	-1.309e+00	
201               6.623e+00		8.051e-01	5.549e-01	2.205e+05		2.177e+05	-1.309e+00	
202               6.622e+00		8.051e-01	5.549e-01	2.205e+05		2.176e+05	-1.309e+00	
203               6.622e+00		8.051e-01	5.549e-01	2.205e+05		2.176e+05	-1.309e+00	
204               6.622e+00		8.051e-01	5.549e-01	2.205e+05		2.176e+05	-1.309e+00	
205               6.622e+00		8.051e-01	5.549e-01	2.205e+05		2.176e+05	-1.309e+00	
206               6.622e+00		8.051e-01	5.549e-01	2.204e+05		2.176e+05	-1.309e+00	
207               6.621e+00		8.051e-01	5.549e-01	2.204e+05		2.176e+05	-1.309e+00	
208               6.621e+00		8.052e-01	5.548e-01	2.204e+05		2.176e+05	-1.309e+00	
209               6.621e+00		8.052e-01	5.548e-01	2.204e+05		2.176e+05	-1.309e+00	
210               6.621e+00		8.052e-01	5.548e-01	2.204e+05		2.175e+05	-1.309e+00	
211               6.621e+00		8.052e-01	5.548e-01	2.204e+05		2.175e+05	-1.309e+00	
212               6.620e+00		8.052e-01	5.548e-01	2.204e+05		2.175e+05	-1.309e+00	
213               6.620e+00		8.052e-01	5.548e-01	2.204e+05		2.175e+05	-1.309e+00	
214               6.620e+00		8.052e-01	5.548e-01	2.203e+05		2.175e+05	-1.309e+00	
215               6.620e+00		8.052e-01	5.548e-01	2.203e+05		2.175e+05	-1.309e+00	
216               6.620e+00		8.052e-01	5.548e-01	2.203e+05		2.175e+05	-1.309e+00	
217               6.619e+00		8.052e-01	5.548e-01	2.203e+05		2.175e+05	-1.309e+00	
218               6.619e+00		8.052e-01	5.548e-01	2.203e+05		2.175e+05	-1.309e+00	
219               6.619e+00		8.052e-01	5.548e-01	2.203e+05		2.175e+05	-1.309e+00	
220               6.619e+00		8.052e-01	5.548e-01	2.203e+05		2.174e+05	-1.309e+00	
221               6.619e+00		8.053e-01	5.547e-01	2.203e+05		2.174e+05	-1.309e+00	
222               6.619e+00		8.053e-01	5.547e-01	2.203e+05		2.174e+05	-1.309e+00	
223               6.618e+00		8.053e-01	5.547e-01	2.203e+05		2.174e+05	-1.309e+00	
224               6.618e+00		8.053e-01	5.547e-01	2.203e+05		2.174e+05	-1.309e+00	
225               6.618e+00		8.053e-01	5.547e-01	2.202e+05		2.174e+05	-1.309e+00	
226               6.618e+00		8.053e-01	5.547e-01	2.202e+05		2.174e+05	-1.309e+00	
227               6.618e+00		8.053e-01	5.547e-01	2.202e+05		2.174e+05	-1.309e+00	
228               6.618e+00		8.053e-01	5.547e-01	2.202e+05		2.174e+05	-1.309e+00	
229               6.617e+00		8.053e-01	5.547e-01	2.202e+05		2.174e+05	-1.309e+00	
230               6.617e+00		8.053e-01	5.547e-01	2.202e+05		2.174e+05	-1.309e+00	
231               6.617e+00		8.053e-01	5.547e-01	2.202e+05		2.173e+05	-1.309e+00	
232               6.617e+00		8.053e-01	5.547e-01	2.202e+05		2.173e+05	-1.309e+00	
233               6.617e+00		8.053e-01	5.547e-01	2.202e+05		2.173e+05	-1.309e+00	
234               6.617e+00		8.053e-01	5.547e-01	2.202e+05		2.173e+05	-1.309e+00	
235               6.617e+00		8.053e-01	5.547e-01	2.202e+05		2.173e+05	-1.309e+00	
236               6.616e+00		8.053e-01	5.547e-01	2.202e+05		2.173e+05	-1.309e+00	
237               6.616e+00		8.053e-01	5.547e-01	2.201e+05		2.173e+05	-1.309e+00	
238               6.616e+00		8.054e-01	5.546e-01	2.201e+05		2.173e+05	-1.309e+00	
239               6.616e+00		8.054e-01	5.546e-01	2.201e+05		2.173e+05	-1.309e+00	
240               6.616e+00		8.054e-01	5.546e-01	2.201e+05		2.173e+05	-1.309e+00	
241               6.616e+00		8.054e-01	5.546e-01	2.201e+05		2.173e+05	-1.309e+00	
242               6.616e+00		8.054e-01	5.546e-01	2.201e+05		2.173e+05	-1.309e+00	
243               6.616e+00		8.054e-01	5.546e-01	2.201e+05		2.173e+05	-1.309e+00	
244               6.615e+00		8.054e-01	5.546e-01	2.201e+05		2.173e+05	-1.309e+00	
245               6.615e+00		8.054e-01	5.546e-01	2.201e+05		2.172e+05	-1.309e+00	
246               6.615e+00		8.054e-01	5.546e-01	2.201e+05		2.172e+05	-1.309e+00	
247               6.615e+00		8.054e-01	5.546e-01	2.201e+05		2.172e+05	-1.309e+00	
248               6.615e+00		8.054e-01	5.546e-01	2.201e+05		2.172e+05	-1.309e+00	
249               6.615e+00		8.054e-01	5.546e-01	2.201e+05		2.172e+05	-1.309e+00	
250               6.615e+00		8.054e-01	5.546e-01	2.201e+05		2.172e+05	-1.309e+00	
251               6.615e+00		8.054e-01	5.546e-01	2.201e+05		2.172e+05	-1.309e+00	
252               6.615e+00		8.054e-01	5.546e-01	2.201e+05		2.172e+05	-1.309e+00	
253               6.615e+00		8.054e-01	5.546e-01	2.200e+05		2.172e+05	-1.309e+00	
254               6.614e+00		8.054e-01	5.546e-01	2.200e+05		2.172e+05	-1.309e+00	
255               6.614e+00		8.054e-01	5.546e-01	2.200e+05		2.172e+05	-1.309e+00	
256               6.614e+00		8.054e-01	5.546e-01	2.200e+05		2.172e+05	-1.309e+00	
257               6.614e+00		8.054e-01	5.546e-01	2.200e+05		2.172e+05	-1.309e+00	
258               6.614e+00		8.054e-01	5.546e-01	2.200e+05		2.172e+05	-1.309e+00	
259               6.614e+00		8.054e-01	5.546e-01	2.200e+05		2.172e+05	-1.309e+00	
260               6.614e+00		8.054e-01	5.546e-01	2.200e+05		2.172e+05	-1.309e+00	
261               6.614e+00		8.054e-01	5.546e-01	2.200e+05		2.172e+05	-1.309e+00	
262               6.614e+00		8.055e-01	5.545e-01	2.200e+05		2.172e+05	-1.309e+00	
263               6.614e+00		8.055e-01	5.545e-01	2.200e+05		2.172e+05	-1.309e+00	
264               6.613e+00		8.055e-01	5.545e-01	2.200e+05		2.171e+05	-1.309e+00	
265               6.613e+00		8.055e-01	5.545e-01	2.200e+05		2.171e+05	-1.309e+00	
266               6.613e+00		8.055e-01	5.545e-01	2.200e+05		2.171e+05	-1.309e+00	
267               6.613e+00		8.055e-01	5.545e-01	2.200e+05		2.171e+05	-1.309e+00	
268               6.613e+00		8.055e-01	5.545e-01	2.200e+05		2.171e+05	-1.309e+00	
269               6.613e+00		8.055e-01	5.545e-01	2.200e+05		2.171e+05	-1.309e+00	
270               6.613e+00		8.055e-01	5.545e-01	2.200e+05		2.171e+05	-1.309e+00	
271               6.613e+00		8.055e-01	5.545e-01	2.200e+05		2.171e+05	-1.309e+00	
272               6.613e+00		8.055e-01	5.545e-01	2.200e+05		2.171e+05	-1.309e+00	
273               6.613e+00		8.055e-01	5.545e-01	2.200e+05		2.171e+05	-1.309e+00	
274               6.613e+00		8.055e-01	5.545e-01	2.199e+05		2.171e+05	-1.309e+00	
275               6.613e+00		8.055e-01	5.545e-01	2.199e+05		2.171e+05	-1.309e+00	
276               6.613e+00		8.055e-01	5.545e-01	2.199e+05		2.171e+05	-1.309e+00	
277               6.613e+00		8.055e-01	5.545e-01	2.199e+05		2.171e+05	-1.309e+00	
278               6.612e+00		8.055e-01	5.545e-01	2.199e+05		2.171e+05	-1.309e+00	
279               6.612e+00		8.055e-01	5.545e-01	2.199e+05		2.171e+05	-1.309e+00	
280               6.612e+00		8.055e-01	5.545e-01	2.199e+05		2.171e+05	-1.309e+00	
281               6.612e+00		8.055e-01	5.545e-01	2.199e+05		2.171e+05	-1.309e+00	
282               6.612e+00		8.055e-01	5.545e-01	2.199e+05		2.171e+05	-1.309e+00	
283               6.612e+00		8.055e-01	5.545e-01	2.199e+05		2.171e+05	-1.309e+00	
284               6.612e+00		8.055e-01	5.545e-01	2.199e+05		2.171e+05	-1.309e+00	
285               6.612e+00		8.055e-01	5.545e-01	2.199e+05		2.171e+05	-1.309e+00	
286               6.612e+00		8.055e-01	5.545e-01	2.199e+05		2.171e+05	-1.309e+00	
287               6.612e+00		8.055e-01	5.545e-01	2.199e+05		2.171e+05	-1.309e+00	
288               6.612e+00		8.055e-01	5.545e-01	2.199e+05		2.171e+05	-1.309e+00	
289               6.612e+00		8.055e-01	5.545e-01	2.199e+05		2.171e+05	-1.309e+00	
290               6.612e+00		8.055e-01	5.545e-01	2.199e+05		2.170e+05	-1.309e+00	
291               6.612e+00		8.055e-01	5.545e-01	2.199e+05		2.170e+05	-1.309e+00	
292               6.612e+00		8.055e-01	5.545e-01	2.199e+05		2.170e+05	-1.309e+00	
293               6.612e+00		8.055e-01	5.545e-01	2.199e+05		2.170e+05	-1.309e+00	
294               6.611e+00		8.055e-01	5.545e-01	2.199e+05		2.170e+05	-1.309e+00	
295               6.611e+00		8.055e-01	5.545e-01	2.199e+05		2.170e+05	-1.309e+00	
296               6.611e+00		8.055e-01	5.545e-01	2.199e+05		2.170e+05	-1.309e+00	
297               6.611e+00		8.055e-01	5.545e-01	2.199e+05		2.170e+05	-1.309e+00	
298               6.611e+00		8.055e-01	5.545e-01	2.199e+05		2.170e+05	-1.309e+00	
299               6.611e+00		8.056e-01	5.544e-01	2.199e+05		2.170e+05	-1.309e+00	
300               6.611e+00		8.056e-01	5.544e-01	2.199e+05		2.170e+05	-1.309e+00	
301               6.611e+00		8.056e-01	5.544e-01	2.199e+05		2.170e+05	-1.309e+00	
302               6.611e+00		8.056e-01	5.544e-01	2.199e+05		2.170e+05	-1.309e+00	
303               6.611e+00		8.056e-01	5.544e-01	2.199e+05		2.170e+05	-1.309e+00	
304               6.611e+00		8.056e-01	5.544e-01	2.199e+05		2.170e+05	-1.309e+00	
305               6.611e+00		8.056e-01	5.544e-01	2.198e+05		2.170e+05	-1.309e+00	
306               6.611e+00		8.056e-01	5.544e-01	2.198e+05		2.170e+05	-1.309e+00	
307               6.611e+00		8.056e-01	5.544e-01	2.198e+05		2.170e+05	-1.309e+00	
308               6.611e+00		8.056e-01	5.544e-01	2.198e+05		2.170e+05	-1.309e+00	
309               6.611e+00		8.056e-01	5.544e-01	2.198e+05		2.170e+05	-1.309e+00	
310               6.611e+00		8.056e-01	5.544e-01	2.198e+05		2.170e+05	-1.309e+00	
311               6.611e+00		8.056e-01	5.544e-01	2.198e+05		2.170e+05	-1.309e+00	
312               6.611e+00		8.056e-01	5.544e-01	2.198e+05		2.170e+05	-1.309e+00	
313               6.611e+00		8.056e-01	5.544e-01	2.198e+05		2.170e+05	-1.309e+00	
314               6.611e+00		8.056e-01	5.544e-01	2.198e+05		2.170e+05	-1.309e+00	
315               6.611e+00		8.056e-01	5.544e-01	2.198e+05		2.170e+05	-1.309e+00	
316               6.611e+00		8.056e-01	5.544e-01	2.198e+05		2.170e+05	-1.309e+00	
317               6.610e+00		8.056e-01	5.544e-01	2.198e+05		2.170e+05	-1.309e+00	
318               6.610e+00		8.056e-01	5.544e-01	2.198e+05		2.170e+05	-1.309e+00	
319               6.610e+00		8.056e-01	5.544e-01	2.198e+05		2.170e+05	-1.309e+00	
320               6.610e+00		8.056e-01	5.544e-01	2.198e+05		2.170e+05	-1.309e+00	
321               6.610e+00		8.056e-01	5.544e-01	2.198e+05		2.170e+05	-1.309e+00	
322               6.610e+00		8.056e-01	5.544e-01	2.198e+05		2.170e+05	-1.309e+00	
323               6.610e+00		8.056e-01	5.544e-01	2.198e+05		2.170e+05	-1.309e+00	
324               6.610e+00		8.056e-01	5.544e-01	2.198e+05		2.170e+05	-1.309e+00	
325               6.610e+00		8.056e-01	5.544e-01	2.198e+05		2.170e+05	-1.309e+00	
326               6.610e+00		8.056e-01	5.544e-01	2.198e+05		2.170e+05	-1.309e+00	
327               6.610e+00		8.056e-01	5.544e-01	2.198e+05		2.170e+05	-1.309e+00	
328               6.610e+00		8.056e-01	5.544e-01	2.198e+05		2.170e+05	-1.309e+00	
329               6.610e+00		8.056e-01	5.544e-01	2.198e+05		2.170e+05	-1.309e+00	
330               6.610e+00		8.056e-01	5.544e-01	2.198e+05		2.170e+05	-1.309e+00	
331               6.610e+00		8.056e-01	5.544e-01	2.198e+05		2.170e+05	-1.309e+00	
332               6.610e+00		8.056e-01	5.544e-01	2.198e+05		2.170e+05	-1.309e+00	
333               6.610e+00		8.056e-01	5.544e-01	2.198e+05		2.170e+05	-1.309e+00	
334               6.610e+00		8.056e-01	5.544e-01	2.198e+05		2.170e+05	-1.309e+00	
335               6.610e+00		8.056e-01	5.544e-01	2.198e+05		2.169e+05	-1.309e+00	
336               6.610e+00		8.056e-01	5.544e-01	2.198e+05		2.169e+05	-1.309e+00	
337               6.610e+00		8.056e-01	5.544e-01	2.198e+05		2.169e+05	-1.309e+00	
338               6.610e+00		8.056e-01	5.544e-01	2.198e+05		2.169e+05	-1.309e+00	
339               6.610e+00		8.056e-01	5.544e-01	2.198e+05		2.169e+05	-1.309e+00	
340               6.610e+00		8.056e-01	5.544e-01	2.198e+05		2.169e+05	-1.309e+00	
341               6.610e+00		8.056e-01	5.544e-01	2.198e+05		2.169e+05	-1.309e+00	
342               6.610e+00		8.056e-01	5.544e-01	2.198e+05		2.169e+05	-1.309e+00	
343               6.610e+00		8.056e-01	5.544e-01	2.198e+05		2.169e+05	-1.309e+00	
344               6.610e+00		8.056e-01	5.544e-01	2.198e+05		2.169e+05	-1.309e+00	
345               6.610e+00		8.056e-01	5.544e-01	2.198e+05		2.169e+05	-1.309e+00	
346               6.610e+00		8.056e-01	5.544e-01	2.198e+05		2.169e+05	-1.309e+00	
347               6.610e+00		8.056e-01	5.544e-01	2.198e+05		2.169e+05	-1.309e+00	
348               6.610e+00		8.056e-01	5.544e-01	2.198e+05		2.169e+05	-1.309e+00	
349               6.610e+00		8.056e-01	5.544e-01	2.198e+05		2.169e+05	-1.309e+00	
350               6.610e+00		8.056e-01	5.544e-01	2.198e+05		2.169e+05	-1.309e+00	
351               6.609e+00		8.056e-01	5.544e-01	2.198e+05		2.169e+05	-1.309e+00	
352               6.609e+00		8.056e-01	5.544e-01	2.198e+05		2.169e+05	-1.309e+00	
353               6.609e+00		8.056e-01	5.544e-01	2.198e+05		2.169e+05	-1.309e+00	
354               6.609e+00		8.056e-01	5.544e-01	2.198e+05		2.169e+05	-1.309e+00	
355               6.609e+00		8.056e-01	5.544e-01	2.198e+05		2.169e+05	-1.309e+00	
356               6.609e+00		8.056e-01	5.544e-01	2.198e+05		2.169e+05	-1.309e+00	
357               6.609e+00		8.056e-01	5.544e-01	2.198e+05		2.169e+05	-1.309e+00	
358               6.609e+00		8.056e-01	5.544e-01	2.198e+05		2.169e+05	-1.309e+00	
359               6.609e+00		8.056e-01	5.544e-01	2.198e+05		2.169e+05	-1.309e+00	
360               6.609e+00		8.056e-01	5.544e-01	2.198e+05		2.169e+05	-1.309e+00	